h 0.5 1 5 tcp 40 ------- 1 1.0 3.0 0 0
+ 0.54 1 5 tcp 40 ------- 1 1.0 3.0 0 0
- 0.54 1 5 tcp 40 ------- 1 1.0 3.0 0 0
d 0.540004 4 5 tcp 40 ------- 1 1.0 3.0 0 0
d 0.540004 2 5 tcp 40 ------- 1 1.0 3.0 0 0
d 0.540004 0 5 tcp 40 ------- 1 1.0 3.0 0 0
r 0.580004 5 3 tcp 40 ------- 1 1.0 3.0 0 0
h 0.580004 3 5 ack 40 ------- 1 3.0 1.0 0 1
+ 0.620004 3 5 ack 40 ------- 1 3.0 1.0 0 1
- 0.620004 3 5 ack 40 ------- 1 3.0 1.0 0 1
d 0.620008 4 5 ack 40 ------- 1 3.0 1.0 0 1
d 0.620008 2 5 ack 40 ------- 1 3.0 1.0 0 1
d 0.620008 0 5 ack 40 ------- 1 3.0 1.0 0 1
r 0.660008 5 1 ack 40 ------- 1 3.0 1.0 0 1
h 0.660008 1 5 tcp 1040 ------- 1 1.0 3.0 1 2
h 0.660008 1 5 tcp 1040 ------- 1 1.0 3.0 2 3
+ 0.700008 1 5 tcp 1040 ------- 1 1.0 3.0 1 2
- 0.700008 1 5 tcp 1040 ------- 1 1.0 3.0 1 2
+ 0.700008 1 5 tcp 1040 ------- 1 1.0 3.0 2 3
d 0.700012 4 5 tcp 1040 ------- 1 1.0 3.0 1 2
d 0.700012 2 5 tcp 1040 ------- 1 1.0 3.0 1 2
d 0.700012 0 5 tcp 1040 ------- 1 1.0 3.0 1 2
- 0.704424 1 5 tcp 1040 ------- 1 1.0 3.0 2 3
d 0.704428 4 5 tcp 1040 ------- 1 1.0 3.0 2 3
d 0.704428 2 5 tcp 1040 ------- 1 1.0 3.0 2 3
d 0.704428 0 5 tcp 1040 ------- 1 1.0 3.0 2 3
r 0.740012 5 3 tcp 1040 ------- 1 1.0 3.0 1 2
h 0.740012 3 5 ack 40 ------- 1 3.0 1.0 1 4
r 0.744428 5 3 tcp 1040 ------- 1 1.0 3.0 2 3
h 0.744428 3 5 ack 40 ------- 1 3.0 1.0 2 5
+ 0.780012 3 5 ack 40 ------- 1 3.0 1.0 1 4
- 0.780012 3 5 ack 40 ------- 1 3.0 1.0 1 4
d 0.780016 4 5 ack 40 ------- 1 3.0 1.0 1 4
d 0.780016 2 5 ack 40 ------- 1 3.0 1.0 1 4
d 0.780016 0 5 ack 40 ------- 1 3.0 1.0 1 4
+ 0.784428 3 5 ack 40 ------- 1 3.0 1.0 2 5
- 0.784428 3 5 ack 40 ------- 1 3.0 1.0 2 5
d 0.784432 4 5 ack 40 ------- 1 3.0 1.0 2 5
d 0.784432 2 5 ack 40 ------- 1 3.0 1.0 2 5
d 0.784432 0 5 ack 40 ------- 1 3.0 1.0 2 5
r 0.820016 5 1 ack 40 ------- 1 3.0 1.0 1 4
h 0.820016 1 5 tcp 1040 ------- 1 1.0 3.0 3 6
h 0.820016 1 5 tcp 1040 ------- 1 1.0 3.0 4 7
r 0.824432 5 1 ack 40 ------- 1 3.0 1.0 2 5
h 0.824432 1 5 tcp 1040 ------- 1 1.0 3.0 5 8
h 0.824432 1 5 tcp 1040 ------- 1 1.0 3.0 6 9
+ 0.860016 1 5 tcp 1040 ------- 1 1.0 3.0 3 6
- 0.860016 1 5 tcp 1040 ------- 1 1.0 3.0 3 6
+ 0.860016 1 5 tcp 1040 ------- 1 1.0 3.0 4 7
d 0.86002 4 5 tcp 1040 ------- 1 1.0 3.0 3 6
d 0.86002 2 5 tcp 1040 ------- 1 1.0 3.0 3 6
d 0.86002 0 5 tcp 1040 ------- 1 1.0 3.0 3 6
+ 0.864432 1 5 tcp 1040 ------- 1 1.0 3.0 5 8
+ 0.864432 1 5 tcp 1040 ------- 1 1.0 3.0 6 9
- 0.864432 1 5 tcp 1040 ------- 1 1.0 3.0 4 7
d 0.864436 4 5 tcp 1040 ------- 1 1.0 3.0 4 7
d 0.864436 2 5 tcp 1040 ------- 1 1.0 3.0 4 7
d 0.864436 0 5 tcp 1040 ------- 1 1.0 3.0 4 7
- 0.868848 1 5 tcp 1040 ------- 1 1.0 3.0 5 8
d 0.868852 4 5 tcp 1040 ------- 1 1.0 3.0 5 8
d 0.868852 2 5 tcp 1040 ------- 1 1.0 3.0 5 8
d 0.868852 0 5 tcp 1040 ------- 1 1.0 3.0 5 8
- 0.873264 1 5 tcp 1040 ------- 1 1.0 3.0 6 9
d 0.873268 4 5 tcp 1040 ------- 1 1.0 3.0 6 9
d 0.873268 2 5 tcp 1040 ------- 1 1.0 3.0 6 9
d 0.873268 0 5 tcp 1040 ------- 1 1.0 3.0 6 9
r 0.90002 5 3 tcp 1040 ------- 1 1.0 3.0 3 6
h 0.90002 3 5 ack 40 ------- 1 3.0 1.0 3 10
r 0.904436 5 3 tcp 1040 ------- 1 1.0 3.0 4 7
h 0.904436 3 5 ack 40 ------- 1 3.0 1.0 4 11
r 0.908852 5 3 tcp 1040 ------- 1 1.0 3.0 5 8
h 0.908852 3 5 ack 40 ------- 1 3.0 1.0 5 12
r 0.913268 5 3 tcp 1040 ------- 1 1.0 3.0 6 9
h 0.913268 3 5 ack 40 ------- 1 3.0 1.0 6 13
+ 0.94002 3 5 ack 40 ------- 1 3.0 1.0 3 10
- 0.94002 3 5 ack 40 ------- 1 3.0 1.0 3 10
d 0.940024 4 5 ack 40 ------- 1 3.0 1.0 3 10
d 0.940024 2 5 ack 40 ------- 1 3.0 1.0 3 10
d 0.940024 0 5 ack 40 ------- 1 3.0 1.0 3 10
+ 0.944436 3 5 ack 40 ------- 1 3.0 1.0 4 11
- 0.944436 3 5 ack 40 ------- 1 3.0 1.0 4 11
d 0.94444 4 5 ack 40 ------- 1 3.0 1.0 4 11
d 0.94444 2 5 ack 40 ------- 1 3.0 1.0 4 11
d 0.94444 0 5 ack 40 ------- 1 3.0 1.0 4 11
+ 0.948852 3 5 ack 40 ------- 1 3.0 1.0 5 12
- 0.948852 3 5 ack 40 ------- 1 3.0 1.0 5 12
d 0.948856 4 5 ack 40 ------- 1 3.0 1.0 5 12
d 0.948856 2 5 ack 40 ------- 1 3.0 1.0 5 12
d 0.948856 0 5 ack 40 ------- 1 3.0 1.0 5 12
+ 0.953268 3 5 ack 40 ------- 1 3.0 1.0 6 13
- 0.953268 3 5 ack 40 ------- 1 3.0 1.0 6 13
d 0.953272 4 5 ack 40 ------- 1 3.0 1.0 6 13
d 0.953272 2 5 ack 40 ------- 1 3.0 1.0 6 13
d 0.953272 0 5 ack 40 ------- 1 3.0 1.0 6 13
r 0.980024 5 1 ack 40 ------- 1 3.0 1.0 3 10
h 0.980024 1 5 tcp 1040 ------- 1 1.0 3.0 7 14
h 0.980024 1 5 tcp 1040 ------- 1 1.0 3.0 8 15
r 0.98444 5 1 ack 40 ------- 1 3.0 1.0 4 11
h 0.98444 1 5 tcp 1040 ------- 1 1.0 3.0 9 16
h 0.98444 1 5 tcp 1040 ------- 1 1.0 3.0 10 17
r 0.988856 5 1 ack 40 ------- 1 3.0 1.0 5 12
h 0.988856 1 5 tcp 1040 ------- 1 1.0 3.0 11 18
h 0.988856 1 5 tcp 1040 ------- 1 1.0 3.0 12 19
r 0.993272 5 1 ack 40 ------- 1 3.0 1.0 6 13
h 0.993272 1 5 tcp 1040 ------- 1 1.0 3.0 13 20
h 0.993272 1 5 tcp 1040 ------- 1 1.0 3.0 14 21
+ 1.020024 1 5 tcp 1040 ------- 1 1.0 3.0 7 14
- 1.020024 1 5 tcp 1040 ------- 1 1.0 3.0 7 14
+ 1.020024 1 5 tcp 1040 ------- 1 1.0 3.0 8 15
d 1.020028 4 5 tcp 1040 ------- 1 1.0 3.0 7 14
d 1.020028 2 5 tcp 1040 ------- 1 1.0 3.0 7 14
d 1.020028 0 5 tcp 1040 ------- 1 1.0 3.0 7 14
+ 1.02444 1 5 tcp 1040 ------- 1 1.0 3.0 9 16
+ 1.02444 1 5 tcp 1040 ------- 1 1.0 3.0 10 17
- 1.02444 1 5 tcp 1040 ------- 1 1.0 3.0 8 15
d 1.024444 4 5 tcp 1040 ------- 1 1.0 3.0 8 15
d 1.024444 2 5 tcp 1040 ------- 1 1.0 3.0 8 15
d 1.024444 0 5 tcp 1040 ------- 1 1.0 3.0 8 15
+ 1.028856 1 5 tcp 1040 ------- 1 1.0 3.0 11 18
+ 1.028856 1 5 tcp 1040 ------- 1 1.0 3.0 12 19
- 1.028856 1 5 tcp 1040 ------- 1 1.0 3.0 9 16
d 1.02886 4 5 tcp 1040 ------- 1 1.0 3.0 9 16
d 1.02886 2 5 tcp 1040 ------- 1 1.0 3.0 9 16
d 1.02886 0 5 tcp 1040 ------- 1 1.0 3.0 9 16
+ 1.033272 1 5 tcp 1040 ------- 1 1.0 3.0 13 20
+ 1.033272 1 5 tcp 1040 ------- 1 1.0 3.0 14 21
- 1.033272 1 5 tcp 1040 ------- 1 1.0 3.0 10 17
d 1.033276 4 5 tcp 1040 ------- 1 1.0 3.0 10 17
d 1.033276 2 5 tcp 1040 ------- 1 1.0 3.0 10 17
d 1.033276 0 5 tcp 1040 ------- 1 1.0 3.0 10 17
- 1.037688 1 5 tcp 1040 ------- 1 1.0 3.0 11 18
d 1.037692 4 5 tcp 1040 ------- 1 1.0 3.0 11 18
d 1.037692 2 5 tcp 1040 ------- 1 1.0 3.0 11 18
d 1.037692 0 5 tcp 1040 ------- 1 1.0 3.0 11 18
- 1.042104 1 5 tcp 1040 ------- 1 1.0 3.0 12 19
d 1.042108 4 5 tcp 1040 ------- 1 1.0 3.0 12 19
d 1.042108 2 5 tcp 1040 ------- 1 1.0 3.0 12 19
d 1.042108 0 5 tcp 1040 ------- 1 1.0 3.0 12 19
- 1.04652 1 5 tcp 1040 ------- 1 1.0 3.0 13 20
d 1.046524 4 5 tcp 1040 ------- 1 1.0 3.0 13 20
d 1.046524 2 5 tcp 1040 ------- 1 1.0 3.0 13 20
d 1.046524 0 5 tcp 1040 ------- 1 1.0 3.0 13 20
- 1.050936 1 5 tcp 1040 ------- 1 1.0 3.0 14 21
d 1.05094 4 5 tcp 1040 ------- 1 1.0 3.0 14 21
d 1.05094 2 5 tcp 1040 ------- 1 1.0 3.0 14 21
d 1.05094 0 5 tcp 1040 ------- 1 1.0 3.0 14 21
r 1.060028 5 3 tcp 1040 ------- 1 1.0 3.0 7 14
h 1.060028 3 5 ack 40 ------- 1 3.0 1.0 7 22
r 1.064444 5 3 tcp 1040 ------- 1 1.0 3.0 8 15
h 1.064444 3 5 ack 40 ------- 1 3.0 1.0 8 23
r 1.06886 5 3 tcp 1040 ------- 1 1.0 3.0 9 16
h 1.06886 3 5 ack 40 ------- 1 3.0 1.0 9 24
r 1.073276 5 3 tcp 1040 ------- 1 1.0 3.0 10 17
h 1.073276 3 5 ack 40 ------- 1 3.0 1.0 10 25
r 1.077692 5 3 tcp 1040 ------- 1 1.0 3.0 11 18
h 1.077692 3 5 ack 40 ------- 1 3.0 1.0 11 26
r 1.082108 5 3 tcp 1040 ------- 1 1.0 3.0 12 19
h 1.082108 3 5 ack 40 ------- 1 3.0 1.0 12 27
r 1.086524 5 3 tcp 1040 ------- 1 1.0 3.0 13 20
h 1.086524 3 5 ack 40 ------- 1 3.0 1.0 13 28
r 1.09094 5 3 tcp 1040 ------- 1 1.0 3.0 14 21
h 1.09094 3 5 ack 40 ------- 1 3.0 1.0 14 29
+ 1.100028 3 5 ack 40 ------- 1 3.0 1.0 7 22
- 1.100028 3 5 ack 40 ------- 1 3.0 1.0 7 22
d 1.100032 4 5 ack 40 ------- 1 3.0 1.0 7 22
d 1.100032 2 5 ack 40 ------- 1 3.0 1.0 7 22
d 1.100032 0 5 ack 40 ------- 1 3.0 1.0 7 22
+ 1.104444 3 5 ack 40 ------- 1 3.0 1.0 8 23
- 1.104444 3 5 ack 40 ------- 1 3.0 1.0 8 23
d 1.104448 4 5 ack 40 ------- 1 3.0 1.0 8 23
d 1.104448 2 5 ack 40 ------- 1 3.0 1.0 8 23
d 1.104448 0 5 ack 40 ------- 1 3.0 1.0 8 23
+ 1.10886 3 5 ack 40 ------- 1 3.0 1.0 9 24
- 1.10886 3 5 ack 40 ------- 1 3.0 1.0 9 24
d 1.108864 4 5 ack 40 ------- 1 3.0 1.0 9 24
d 1.108864 2 5 ack 40 ------- 1 3.0 1.0 9 24
d 1.108864 0 5 ack 40 ------- 1 3.0 1.0 9 24
+ 1.113276 3 5 ack 40 ------- 1 3.0 1.0 10 25
- 1.113276 3 5 ack 40 ------- 1 3.0 1.0 10 25
d 1.11328 4 5 ack 40 ------- 1 3.0 1.0 10 25
d 1.11328 2 5 ack 40 ------- 1 3.0 1.0 10 25
d 1.11328 0 5 ack 40 ------- 1 3.0 1.0 10 25
+ 1.117692 3 5 ack 40 ------- 1 3.0 1.0 11 26
- 1.117692 3 5 ack 40 ------- 1 3.0 1.0 11 26
d 1.117696 4 5 ack 40 ------- 1 3.0 1.0 11 26
d 1.117696 2 5 ack 40 ------- 1 3.0 1.0 11 26
d 1.117696 0 5 ack 40 ------- 1 3.0 1.0 11 26
+ 1.122108 3 5 ack 40 ------- 1 3.0 1.0 12 27
- 1.122108 3 5 ack 40 ------- 1 3.0 1.0 12 27
d 1.122112 4 5 ack 40 ------- 1 3.0 1.0 12 27
d 1.122112 2 5 ack 40 ------- 1 3.0 1.0 12 27
d 1.122112 0 5 ack 40 ------- 1 3.0 1.0 12 27
+ 1.126524 3 5 ack 40 ------- 1 3.0 1.0 13 28
- 1.126524 3 5 ack 40 ------- 1 3.0 1.0 13 28
d 1.126528 4 5 ack 40 ------- 1 3.0 1.0 13 28
d 1.126528 2 5 ack 40 ------- 1 3.0 1.0 13 28
d 1.126528 0 5 ack 40 ------- 1 3.0 1.0 13 28
+ 1.13094 3 5 ack 40 ------- 1 3.0 1.0 14 29
- 1.13094 3 5 ack 40 ------- 1 3.0 1.0 14 29
d 1.130944 4 5 ack 40 ------- 1 3.0 1.0 14 29
d 1.130944 2 5 ack 40 ------- 1 3.0 1.0 14 29
d 1.130944 0 5 ack 40 ------- 1 3.0 1.0 14 29
r 1.140032 5 1 ack 40 ------- 1 3.0 1.0 7 22
h 1.140032 1 5 tcp 1040 ------- 1 1.0 3.0 15 30
h 1.140032 1 5 tcp 1040 ------- 1 1.0 3.0 16 31
r 1.144448 5 1 ack 40 ------- 1 3.0 1.0 8 23
h 1.144448 1 5 tcp 1040 ------- 1 1.0 3.0 17 32
h 1.144448 1 5 tcp 1040 ------- 1 1.0 3.0 18 33
r 1.148864 5 1 ack 40 ------- 1 3.0 1.0 9 24
h 1.148864 1 5 tcp 1040 ------- 1 1.0 3.0 19 34
h 1.148864 1 5 tcp 1040 ------- 1 1.0 3.0 20 35
r 1.15328 5 1 ack 40 ------- 1 3.0 1.0 10 25
h 1.15328 1 5 tcp 1040 ------- 1 1.0 3.0 21 36
h 1.15328 1 5 tcp 1040 ------- 1 1.0 3.0 22 37
r 1.157696 5 1 ack 40 ------- 1 3.0 1.0 11 26
h 1.157696 1 5 tcp 1040 ------- 1 1.0 3.0 23 38
h 1.157696 1 5 tcp 1040 ------- 1 1.0 3.0 24 39
r 1.162112 5 1 ack 40 ------- 1 3.0 1.0 12 27
h 1.162112 1 5 tcp 1040 ------- 1 1.0 3.0 25 40
h 1.162112 1 5 tcp 1040 ------- 1 1.0 3.0 26 41
r 1.166528 5 1 ack 40 ------- 1 3.0 1.0 13 28
h 1.166528 1 5 tcp 1040 ------- 1 1.0 3.0 27 42
h 1.166528 1 5 tcp 1040 ------- 1 1.0 3.0 28 43
r 1.170944 5 1 ack 40 ------- 1 3.0 1.0 14 29
h 1.170944 1 5 tcp 1040 ------- 1 1.0 3.0 29 44
h 1.170944 1 5 tcp 1040 ------- 1 1.0 3.0 30 45
+ 1.180032 1 5 tcp 1040 ------- 1 1.0 3.0 15 30
- 1.180032 1 5 tcp 1040 ------- 1 1.0 3.0 15 30
+ 1.180032 1 5 tcp 1040 ------- 1 1.0 3.0 16 31
d 1.180036 4 5 tcp 1040 ------- 1 1.0 3.0 15 30
d 1.180036 2 5 tcp 1040 ------- 1 1.0 3.0 15 30
d 1.180036 0 5 tcp 1040 ------- 1 1.0 3.0 15 30
+ 1.184448 1 5 tcp 1040 ------- 1 1.0 3.0 17 32
+ 1.184448 1 5 tcp 1040 ------- 1 1.0 3.0 18 33
- 1.184448 1 5 tcp 1040 ------- 1 1.0 3.0 16 31
d 1.184452 4 5 tcp 1040 ------- 1 1.0 3.0 16 31
d 1.184452 2 5 tcp 1040 ------- 1 1.0 3.0 16 31
d 1.184452 0 5 tcp 1040 ------- 1 1.0 3.0 16 31
+ 1.188864 1 5 tcp 1040 ------- 1 1.0 3.0 19 34
+ 1.188864 1 5 tcp 1040 ------- 1 1.0 3.0 20 35
- 1.188864 1 5 tcp 1040 ------- 1 1.0 3.0 17 32
d 1.188868 4 5 tcp 1040 ------- 1 1.0 3.0 17 32
d 1.188868 2 5 tcp 1040 ------- 1 1.0 3.0 17 32
d 1.188868 0 5 tcp 1040 ------- 1 1.0 3.0 17 32
+ 1.19328 1 5 tcp 1040 ------- 1 1.0 3.0 21 36
+ 1.19328 1 5 tcp 1040 ------- 1 1.0 3.0 22 37
- 1.19328 1 5 tcp 1040 ------- 1 1.0 3.0 18 33
d 1.193284 4 5 tcp 1040 ------- 1 1.0 3.0 18 33
d 1.193284 2 5 tcp 1040 ------- 1 1.0 3.0 18 33
d 1.193284 0 5 tcp 1040 ------- 1 1.0 3.0 18 33
+ 1.197696 1 5 tcp 1040 ------- 1 1.0 3.0 23 38
+ 1.197696 1 5 tcp 1040 ------- 1 1.0 3.0 24 39
- 1.197696 1 5 tcp 1040 ------- 1 1.0 3.0 19 34
d 1.1977 4 5 tcp 1040 ------- 1 1.0 3.0 19 34
d 1.1977 2 5 tcp 1040 ------- 1 1.0 3.0 19 34
d 1.1977 0 5 tcp 1040 ------- 1 1.0 3.0 19 34
+ 1.202112 1 5 tcp 1040 ------- 1 1.0 3.0 25 40
+ 1.202112 1 5 tcp 1040 ------- 1 1.0 3.0 26 41
- 1.202112 1 5 tcp 1040 ------- 1 1.0 3.0 20 35
d 1.202116 4 5 tcp 1040 ------- 1 1.0 3.0 20 35
d 1.202116 2 5 tcp 1040 ------- 1 1.0 3.0 20 35
d 1.202116 0 5 tcp 1040 ------- 1 1.0 3.0 20 35
+ 1.206528 1 5 tcp 1040 ------- 1 1.0 3.0 27 42
+ 1.206528 1 5 tcp 1040 ------- 1 1.0 3.0 28 43
- 1.206528 1 5 tcp 1040 ------- 1 1.0 3.0 21 36
d 1.206532 4 5 tcp 1040 ------- 1 1.0 3.0 21 36
d 1.206532 2 5 tcp 1040 ------- 1 1.0 3.0 21 36
d 1.206532 0 5 tcp 1040 ------- 1 1.0 3.0 21 36
+ 1.210944 1 5 tcp 1040 ------- 1 1.0 3.0 29 44
+ 1.210944 1 5 tcp 1040 ------- 1 1.0 3.0 30 45
- 1.210944 1 5 tcp 1040 ------- 1 1.0 3.0 22 37
d 1.210948 4 5 tcp 1040 ------- 1 1.0 3.0 22 37
d 1.210948 2 5 tcp 1040 ------- 1 1.0 3.0 22 37
d 1.210948 0 5 tcp 1040 ------- 1 1.0 3.0 22 37
- 1.21536 1 5 tcp 1040 ------- 1 1.0 3.0 23 38
d 1.215364 4 5 tcp 1040 ------- 1 1.0 3.0 23 38
d 1.215364 2 5 tcp 1040 ------- 1 1.0 3.0 23 38
d 1.215364 0 5 tcp 1040 ------- 1 1.0 3.0 23 38
- 1.219776 1 5 tcp 1040 ------- 1 1.0 3.0 24 39
d 1.21978 4 5 tcp 1040 ------- 1 1.0 3.0 24 39
d 1.21978 2 5 tcp 1040 ------- 1 1.0 3.0 24 39
d 1.21978 0 5 tcp 1040 ------- 1 1.0 3.0 24 39
r 1.220036 5 3 tcp 1040 ------- 1 1.0 3.0 15 30
h 1.220036 3 5 ack 40 ------- 1 3.0 1.0 15 46
- 1.224192 1 5 tcp 1040 ------- 1 1.0 3.0 25 40
d 1.224196 4 5 tcp 1040 ------- 1 1.0 3.0 25 40
d 1.224196 2 5 tcp 1040 ------- 1 1.0 3.0 25 40
d 1.224196 0 5 tcp 1040 ------- 1 1.0 3.0 25 40
r 1.224452 5 3 tcp 1040 ------- 1 1.0 3.0 16 31
h 1.224452 3 5 ack 40 ------- 1 3.0 1.0 16 47
- 1.228608 1 5 tcp 1040 ------- 1 1.0 3.0 26 41
d 1.228612 4 5 tcp 1040 ------- 1 1.0 3.0 26 41
d 1.228612 2 5 tcp 1040 ------- 1 1.0 3.0 26 41
d 1.228612 0 5 tcp 1040 ------- 1 1.0 3.0 26 41
r 1.228868 5 3 tcp 1040 ------- 1 1.0 3.0 17 32
h 1.228868 3 5 ack 40 ------- 1 3.0 1.0 17 48
- 1.233024 1 5 tcp 1040 ------- 1 1.0 3.0 27 42
d 1.233028 4 5 tcp 1040 ------- 1 1.0 3.0 27 42
d 1.233028 2 5 tcp 1040 ------- 1 1.0 3.0 27 42
d 1.233028 0 5 tcp 1040 ------- 1 1.0 3.0 27 42
r 1.233284 5 3 tcp 1040 ------- 1 1.0 3.0 18 33
h 1.233284 3 5 ack 40 ------- 1 3.0 1.0 18 49
- 1.23744 1 5 tcp 1040 ------- 1 1.0 3.0 28 43
d 1.237444 4 5 tcp 1040 ------- 1 1.0 3.0 28 43
d 1.237444 2 5 tcp 1040 ------- 1 1.0 3.0 28 43
d 1.237444 0 5 tcp 1040 ------- 1 1.0 3.0 28 43
r 1.2377 5 3 tcp 1040 ------- 1 1.0 3.0 19 34
h 1.2377 3 5 ack 40 ------- 1 3.0 1.0 19 50
- 1.241856 1 5 tcp 1040 ------- 1 1.0 3.0 29 44
d 1.24186 4 5 tcp 1040 ------- 1 1.0 3.0 29 44
d 1.24186 2 5 tcp 1040 ------- 1 1.0 3.0 29 44
d 1.24186 0 5 tcp 1040 ------- 1 1.0 3.0 29 44
r 1.242116 5 3 tcp 1040 ------- 1 1.0 3.0 20 35
h 1.242116 3 5 ack 40 ------- 1 3.0 1.0 20 51
- 1.246272 1 5 tcp 1040 ------- 1 1.0 3.0 30 45
d 1.246276 4 5 tcp 1040 ------- 1 1.0 3.0 30 45
d 1.246276 2 5 tcp 1040 ------- 1 1.0 3.0 30 45
d 1.246276 0 5 tcp 1040 ------- 1 1.0 3.0 30 45
r 1.246532 5 3 tcp 1040 ------- 1 1.0 3.0 21 36
h 1.246532 3 5 ack 40 ------- 1 3.0 1.0 21 52
r 1.250948 5 3 tcp 1040 ------- 1 1.0 3.0 22 37
h 1.250948 3 5 ack 40 ------- 1 3.0 1.0 22 53
r 1.255364 5 3 tcp 1040 ------- 1 1.0 3.0 23 38
h 1.255364 3 5 ack 40 ------- 1 3.0 1.0 23 54
r 1.25978 5 3 tcp 1040 ------- 1 1.0 3.0 24 39
h 1.25978 3 5 ack 40 ------- 1 3.0 1.0 24 55
+ 1.260036 3 5 ack 40 ------- 1 3.0 1.0 15 46
- 1.260036 3 5 ack 40 ------- 1 3.0 1.0 15 46
d 1.26004 4 5 ack 40 ------- 1 3.0 1.0 15 46
d 1.26004 2 5 ack 40 ------- 1 3.0 1.0 15 46
d 1.26004 0 5 ack 40 ------- 1 3.0 1.0 15 46
r 1.264196 5 3 tcp 1040 ------- 1 1.0 3.0 25 40
h 1.264196 3 5 ack 40 ------- 1 3.0 1.0 25 56
+ 1.264452 3 5 ack 40 ------- 1 3.0 1.0 16 47
- 1.264452 3 5 ack 40 ------- 1 3.0 1.0 16 47
d 1.264456 4 5 ack 40 ------- 1 3.0 1.0 16 47
d 1.264456 2 5 ack 40 ------- 1 3.0 1.0 16 47
d 1.264456 0 5 ack 40 ------- 1 3.0 1.0 16 47
r 1.268612 5 3 tcp 1040 ------- 1 1.0 3.0 26 41
h 1.268612 3 5 ack 40 ------- 1 3.0 1.0 26 57
+ 1.268868 3 5 ack 40 ------- 1 3.0 1.0 17 48
- 1.268868 3 5 ack 40 ------- 1 3.0 1.0 17 48
d 1.268872 4 5 ack 40 ------- 1 3.0 1.0 17 48
d 1.268872 2 5 ack 40 ------- 1 3.0 1.0 17 48
d 1.268872 0 5 ack 40 ------- 1 3.0 1.0 17 48
r 1.273028 5 3 tcp 1040 ------- 1 1.0 3.0 27 42
h 1.273028 3 5 ack 40 ------- 1 3.0 1.0 27 58
+ 1.273284 3 5 ack 40 ------- 1 3.0 1.0 18 49
- 1.273284 3 5 ack 40 ------- 1 3.0 1.0 18 49
d 1.273288 4 5 ack 40 ------- 1 3.0 1.0 18 49
d 1.273288 2 5 ack 40 ------- 1 3.0 1.0 18 49
d 1.273288 0 5 ack 40 ------- 1 3.0 1.0 18 49
r 1.277444 5 3 tcp 1040 ------- 1 1.0 3.0 28 43
h 1.277444 3 5 ack 40 ------- 1 3.0 1.0 28 59
+ 1.2777 3 5 ack 40 ------- 1 3.0 1.0 19 50
- 1.2777 3 5 ack 40 ------- 1 3.0 1.0 19 50
d 1.277704 4 5 ack 40 ------- 1 3.0 1.0 19 50
d 1.277704 2 5 ack 40 ------- 1 3.0 1.0 19 50
d 1.277704 0 5 ack 40 ------- 1 3.0 1.0 19 50
r 1.28186 5 3 tcp 1040 ------- 1 1.0 3.0 29 44
h 1.28186 3 5 ack 40 ------- 1 3.0 1.0 29 60
+ 1.282116 3 5 ack 40 ------- 1 3.0 1.0 20 51
- 1.282116 3 5 ack 40 ------- 1 3.0 1.0 20 51
d 1.28212 4 5 ack 40 ------- 1 3.0 1.0 20 51
d 1.28212 2 5 ack 40 ------- 1 3.0 1.0 20 51
d 1.28212 0 5 ack 40 ------- 1 3.0 1.0 20 51
r 1.286276 5 3 tcp 1040 ------- 1 1.0 3.0 30 45
h 1.286276 3 5 ack 40 ------- 1 3.0 1.0 30 61
+ 1.286532 3 5 ack 40 ------- 1 3.0 1.0 21 52
- 1.286532 3 5 ack 40 ------- 1 3.0 1.0 21 52
d 1.286536 4 5 ack 40 ------- 1 3.0 1.0 21 52
d 1.286536 2 5 ack 40 ------- 1 3.0 1.0 21 52
d 1.286536 0 5 ack 40 ------- 1 3.0 1.0 21 52
+ 1.290948 3 5 ack 40 ------- 1 3.0 1.0 22 53
- 1.290948 3 5 ack 40 ------- 1 3.0 1.0 22 53
d 1.290952 4 5 ack 40 ------- 1 3.0 1.0 22 53
d 1.290952 2 5 ack 40 ------- 1 3.0 1.0 22 53
d 1.290952 0 5 ack 40 ------- 1 3.0 1.0 22 53
+ 1.295364 3 5 ack 40 ------- 1 3.0 1.0 23 54
- 1.295364 3 5 ack 40 ------- 1 3.0 1.0 23 54
d 1.295368 4 5 ack 40 ------- 1 3.0 1.0 23 54
d 1.295368 2 5 ack 40 ------- 1 3.0 1.0 23 54
d 1.295368 0 5 ack 40 ------- 1 3.0 1.0 23 54
+ 1.29978 3 5 ack 40 ------- 1 3.0 1.0 24 55
- 1.29978 3 5 ack 40 ------- 1 3.0 1.0 24 55
d 1.299784 4 5 ack 40 ------- 1 3.0 1.0 24 55
d 1.299784 2 5 ack 40 ------- 1 3.0 1.0 24 55
d 1.299784 0 5 ack 40 ------- 1 3.0 1.0 24 55
r 1.30004 5 1 ack 40 ------- 1 3.0 1.0 15 46
h 1.30004 1 5 tcp 1040 ------- 1 1.0 3.0 31 62
h 1.30004 1 5 tcp 1040 ------- 1 1.0 3.0 32 63
+ 1.304196 3 5 ack 40 ------- 1 3.0 1.0 25 56
- 1.304196 3 5 ack 40 ------- 1 3.0 1.0 25 56
d 1.3042 4 5 ack 40 ------- 1 3.0 1.0 25 56
d 1.3042 2 5 ack 40 ------- 1 3.0 1.0 25 56
d 1.3042 0 5 ack 40 ------- 1 3.0 1.0 25 56
r 1.304456 5 1 ack 40 ------- 1 3.0 1.0 16 47
h 1.304456 1 5 tcp 1040 ------- 1 1.0 3.0 33 64
h 1.304456 1 5 tcp 1040 ------- 1 1.0 3.0 34 65
+ 1.308612 3 5 ack 40 ------- 1 3.0 1.0 26 57
- 1.308612 3 5 ack 40 ------- 1 3.0 1.0 26 57
d 1.308616 4 5 ack 40 ------- 1 3.0 1.0 26 57
d 1.308616 2 5 ack 40 ------- 1 3.0 1.0 26 57
d 1.308616 0 5 ack 40 ------- 1 3.0 1.0 26 57
r 1.308872 5 1 ack 40 ------- 1 3.0 1.0 17 48
h 1.308872 1 5 tcp 1040 ------- 1 1.0 3.0 35 66
h 1.308872 1 5 tcp 1040 ------- 1 1.0 3.0 36 67
+ 1.313028 3 5 ack 40 ------- 1 3.0 1.0 27 58
- 1.313028 3 5 ack 40 ------- 1 3.0 1.0 27 58
d 1.313032 4 5 ack 40 ------- 1 3.0 1.0 27 58
d 1.313032 2 5 ack 40 ------- 1 3.0 1.0 27 58
d 1.313032 0 5 ack 40 ------- 1 3.0 1.0 27 58
r 1.313288 5 1 ack 40 ------- 1 3.0 1.0 18 49
h 1.313288 1 5 tcp 1040 ------- 1 1.0 3.0 37 68
h 1.313288 1 5 tcp 1040 ------- 1 1.0 3.0 38 69
+ 1.317444 3 5 ack 40 ------- 1 3.0 1.0 28 59
- 1.317444 3 5 ack 40 ------- 1 3.0 1.0 28 59
d 1.317448 4 5 ack 40 ------- 1 3.0 1.0 28 59
d 1.317448 2 5 ack 40 ------- 1 3.0 1.0 28 59
d 1.317448 0 5 ack 40 ------- 1 3.0 1.0 28 59
r 1.317704 5 1 ack 40 ------- 1 3.0 1.0 19 50
h 1.317704 1 5 tcp 1040 ------- 1 1.0 3.0 39 70
+ 1.32186 3 5 ack 40 ------- 1 3.0 1.0 29 60
- 1.32186 3 5 ack 40 ------- 1 3.0 1.0 29 60
d 1.321864 4 5 ack 40 ------- 1 3.0 1.0 29 60
d 1.321864 2 5 ack 40 ------- 1 3.0 1.0 29 60
d 1.321864 0 5 ack 40 ------- 1 3.0 1.0 29 60
r 1.32212 5 1 ack 40 ------- 1 3.0 1.0 20 51
h 1.32212 1 5 tcp 1040 ------- 1 1.0 3.0 40 71
+ 1.326276 3 5 ack 40 ------- 1 3.0 1.0 30 61
- 1.326276 3 5 ack 40 ------- 1 3.0 1.0 30 61
d 1.32628 4 5 ack 40 ------- 1 3.0 1.0 30 61
d 1.32628 2 5 ack 40 ------- 1 3.0 1.0 30 61
d 1.32628 0 5 ack 40 ------- 1 3.0 1.0 30 61
r 1.326536 5 1 ack 40 ------- 1 3.0 1.0 21 52
h 1.326536 1 5 tcp 1040 ------- 1 1.0 3.0 41 72
r 1.330952 5 1 ack 40 ------- 1 3.0 1.0 22 53
h 1.330952 1 5 tcp 1040 ------- 1 1.0 3.0 42 73
r 1.335368 5 1 ack 40 ------- 1 3.0 1.0 23 54
h 1.335368 1 5 tcp 1040 ------- 1 1.0 3.0 43 74
r 1.339784 5 1 ack 40 ------- 1 3.0 1.0 24 55
h 1.339784 1 5 tcp 1040 ------- 1 1.0 3.0 44 75
+ 1.34004 1 5 tcp 1040 ------- 1 1.0 3.0 31 62
- 1.34004 1 5 tcp 1040 ------- 1 1.0 3.0 31 62
+ 1.34004 1 5 tcp 1040 ------- 1 1.0 3.0 32 63
d 1.340044 4 5 tcp 1040 ------- 1 1.0 3.0 31 62
d 1.340044 2 5 tcp 1040 ------- 1 1.0 3.0 31 62
d 1.340044 0 5 tcp 1040 ------- 1 1.0 3.0 31 62
r 1.3442 5 1 ack 40 ------- 1 3.0 1.0 25 56
h 1.3442 1 5 tcp 1040 ------- 1 1.0 3.0 45 76
+ 1.344456 1 5 tcp 1040 ------- 1 1.0 3.0 33 64
+ 1.344456 1 5 tcp 1040 ------- 1 1.0 3.0 34 65
- 1.344456 1 5 tcp 1040 ------- 1 1.0 3.0 32 63
d 1.34446 4 5 tcp 1040 ------- 1 1.0 3.0 32 63
d 1.34446 2 5 tcp 1040 ------- 1 1.0 3.0 32 63
d 1.34446 0 5 tcp 1040 ------- 1 1.0 3.0 32 63
r 1.348616 5 1 ack 40 ------- 1 3.0 1.0 26 57
h 1.348616 1 5 tcp 1040 ------- 1 1.0 3.0 46 77
+ 1.348872 1 5 tcp 1040 ------- 1 1.0 3.0 35 66
+ 1.348872 1 5 tcp 1040 ------- 1 1.0 3.0 36 67
- 1.348872 1 5 tcp 1040 ------- 1 1.0 3.0 33 64
d 1.348876 4 5 tcp 1040 ------- 1 1.0 3.0 33 64
d 1.348876 2 5 tcp 1040 ------- 1 1.0 3.0 33 64
d 1.348876 0 5 tcp 1040 ------- 1 1.0 3.0 33 64
r 1.353032 5 1 ack 40 ------- 1 3.0 1.0 27 58
h 1.353032 1 5 tcp 1040 ------- 1 1.0 3.0 47 78
+ 1.353288 1 5 tcp 1040 ------- 1 1.0 3.0 37 68
+ 1.353288 1 5 tcp 1040 ------- 1 1.0 3.0 38 69
- 1.353288 1 5 tcp 1040 ------- 1 1.0 3.0 34 65
d 1.353292 4 5 tcp 1040 ------- 1 1.0 3.0 34 65
d 1.353292 2 5 tcp 1040 ------- 1 1.0 3.0 34 65
d 1.353292 0 5 tcp 1040 ------- 1 1.0 3.0 34 65
r 1.357448 5 1 ack 40 ------- 1 3.0 1.0 28 59
h 1.357448 1 5 tcp 1040 ------- 1 1.0 3.0 48 79
+ 1.357704 1 5 tcp 1040 ------- 1 1.0 3.0 39 70
- 1.357704 1 5 tcp 1040 ------- 1 1.0 3.0 35 66
d 1.357708 4 5 tcp 1040 ------- 1 1.0 3.0 35 66
d 1.357708 2 5 tcp 1040 ------- 1 1.0 3.0 35 66
d 1.357708 0 5 tcp 1040 ------- 1 1.0 3.0 35 66
r 1.361864 5 1 ack 40 ------- 1 3.0 1.0 29 60
h 1.361864 1 5 tcp 1040 ------- 1 1.0 3.0 49 80
+ 1.36212 1 5 tcp 1040 ------- 1 1.0 3.0 40 71
- 1.36212 1 5 tcp 1040 ------- 1 1.0 3.0 36 67
d 1.362124 4 5 tcp 1040 ------- 1 1.0 3.0 36 67
d 1.362124 2 5 tcp 1040 ------- 1 1.0 3.0 36 67
d 1.362124 0 5 tcp 1040 ------- 1 1.0 3.0 36 67
r 1.36628 5 1 ack 40 ------- 1 3.0 1.0 30 61
h 1.36628 1 5 tcp 1040 ------- 1 1.0 3.0 50 81
+ 1.366536 1 5 tcp 1040 ------- 1 1.0 3.0 41 72
- 1.366536 1 5 tcp 1040 ------- 1 1.0 3.0 37 68
d 1.36654 4 5 tcp 1040 ------- 1 1.0 3.0 37 68
d 1.36654 2 5 tcp 1040 ------- 1 1.0 3.0 37 68
d 1.36654 0 5 tcp 1040 ------- 1 1.0 3.0 37 68
+ 1.370952 1 5 tcp 1040 ------- 1 1.0 3.0 42 73
- 1.370952 1 5 tcp 1040 ------- 1 1.0 3.0 38 69
d 1.370956 4 5 tcp 1040 ------- 1 1.0 3.0 38 69
d 1.370956 2 5 tcp 1040 ------- 1 1.0 3.0 38 69
d 1.370956 0 5 tcp 1040 ------- 1 1.0 3.0 38 69
+ 1.375368 1 5 tcp 1040 ------- 1 1.0 3.0 43 74
- 1.375368 1 5 tcp 1040 ------- 1 1.0 3.0 39 70
d 1.375372 4 5 tcp 1040 ------- 1 1.0 3.0 39 70
d 1.375372 2 5 tcp 1040 ------- 1 1.0 3.0 39 70
d 1.375372 0 5 tcp 1040 ------- 1 1.0 3.0 39 70
+ 1.379784 1 5 tcp 1040 ------- 1 1.0 3.0 44 75
- 1.379784 1 5 tcp 1040 ------- 1 1.0 3.0 40 71
d 1.379788 4 5 tcp 1040 ------- 1 1.0 3.0 40 71
d 1.379788 2 5 tcp 1040 ------- 1 1.0 3.0 40 71
d 1.379788 0 5 tcp 1040 ------- 1 1.0 3.0 40 71
r 1.380044 5 3 tcp 1040 ------- 1 1.0 3.0 31 62
h 1.380044 3 5 ack 40 ------- 1 3.0 1.0 31 82
+ 1.3842 1 5 tcp 1040 ------- 1 1.0 3.0 45 76
- 1.3842 1 5 tcp 1040 ------- 1 1.0 3.0 41 72
d 1.384204 4 5 tcp 1040 ------- 1 1.0 3.0 41 72
d 1.384204 2 5 tcp 1040 ------- 1 1.0 3.0 41 72
d 1.384204 0 5 tcp 1040 ------- 1 1.0 3.0 41 72
r 1.38446 5 3 tcp 1040 ------- 1 1.0 3.0 32 63
h 1.38446 3 5 ack 40 ------- 1 3.0 1.0 32 83
+ 1.388616 1 5 tcp 1040 ------- 1 1.0 3.0 46 77
- 1.388616 1 5 tcp 1040 ------- 1 1.0 3.0 42 73
d 1.38862 4 5 tcp 1040 ------- 1 1.0 3.0 42 73
d 1.38862 2 5 tcp 1040 ------- 1 1.0 3.0 42 73
d 1.38862 0 5 tcp 1040 ------- 1 1.0 3.0 42 73
r 1.388876 5 3 tcp 1040 ------- 1 1.0 3.0 33 64
h 1.388876 3 5 ack 40 ------- 1 3.0 1.0 33 84
+ 1.393032 1 5 tcp 1040 ------- 1 1.0 3.0 47 78
- 1.393032 1 5 tcp 1040 ------- 1 1.0 3.0 43 74
d 1.393036 4 5 tcp 1040 ------- 1 1.0 3.0 43 74
d 1.393036 2 5 tcp 1040 ------- 1 1.0 3.0 43 74
d 1.393036 0 5 tcp 1040 ------- 1 1.0 3.0 43 74
r 1.393292 5 3 tcp 1040 ------- 1 1.0 3.0 34 65
h 1.393292 3 5 ack 40 ------- 1 3.0 1.0 34 85
+ 1.397448 1 5 tcp 1040 ------- 1 1.0 3.0 48 79
- 1.397448 1 5 tcp 1040 ------- 1 1.0 3.0 44 75
d 1.397452 4 5 tcp 1040 ------- 1 1.0 3.0 44 75
d 1.397452 2 5 tcp 1040 ------- 1 1.0 3.0 44 75
d 1.397452 0 5 tcp 1040 ------- 1 1.0 3.0 44 75
r 1.397708 5 3 tcp 1040 ------- 1 1.0 3.0 35 66
h 1.397708 3 5 ack 40 ------- 1 3.0 1.0 35 86
+ 1.401864 1 5 tcp 1040 ------- 1 1.0 3.0 49 80
- 1.401864 1 5 tcp 1040 ------- 1 1.0 3.0 45 76
d 1.401868 4 5 tcp 1040 ------- 1 1.0 3.0 45 76
d 1.401868 2 5 tcp 1040 ------- 1 1.0 3.0 45 76
d 1.401868 0 5 tcp 1040 ------- 1 1.0 3.0 45 76
r 1.402124 5 3 tcp 1040 ------- 1 1.0 3.0 36 67
h 1.402124 3 5 ack 40 ------- 1 3.0 1.0 36 87
+ 1.40628 1 5 tcp 1040 ------- 1 1.0 3.0 50 81
- 1.40628 1 5 tcp 1040 ------- 1 1.0 3.0 46 77
d 1.406284 4 5 tcp 1040 ------- 1 1.0 3.0 46 77
d 1.406284 2 5 tcp 1040 ------- 1 1.0 3.0 46 77
d 1.406284 0 5 tcp 1040 ------- 1 1.0 3.0 46 77
r 1.40654 5 3 tcp 1040 ------- 1 1.0 3.0 37 68
h 1.40654 3 5 ack 40 ------- 1 3.0 1.0 37 88
- 1.410696 1 5 tcp 1040 ------- 1 1.0 3.0 47 78
d 1.4107 4 5 tcp 1040 ------- 1 1.0 3.0 47 78
d 1.4107 2 5 tcp 1040 ------- 1 1.0 3.0 47 78
d 1.4107 0 5 tcp 1040 ------- 1 1.0 3.0 47 78
r 1.410956 5 3 tcp 1040 ------- 1 1.0 3.0 38 69
h 1.410956 3 5 ack 40 ------- 1 3.0 1.0 38 89
- 1.415112 1 5 tcp 1040 ------- 1 1.0 3.0 48 79
d 1.415116 4 5 tcp 1040 ------- 1 1.0 3.0 48 79
d 1.415116 2 5 tcp 1040 ------- 1 1.0 3.0 48 79
d 1.415116 0 5 tcp 1040 ------- 1 1.0 3.0 48 79
r 1.415372 5 3 tcp 1040 ------- 1 1.0 3.0 39 70
h 1.415372 3 5 ack 40 ------- 1 3.0 1.0 39 90
- 1.419528 1 5 tcp 1040 ------- 1 1.0 3.0 49 80
d 1.419532 4 5 tcp 1040 ------- 1 1.0 3.0 49 80
d 1.419532 2 5 tcp 1040 ------- 1 1.0 3.0 49 80
d 1.419532 0 5 tcp 1040 ------- 1 1.0 3.0 49 80
r 1.419788 5 3 tcp 1040 ------- 1 1.0 3.0 40 71
h 1.419788 3 5 ack 40 ------- 1 3.0 1.0 40 91
+ 1.420044 3 5 ack 40 ------- 1 3.0 1.0 31 82
- 1.420044 3 5 ack 40 ------- 1 3.0 1.0 31 82
d 1.420048 4 5 ack 40 ------- 1 3.0 1.0 31 82
d 1.420048 2 5 ack 40 ------- 1 3.0 1.0 31 82
d 1.420048 0 5 ack 40 ------- 1 3.0 1.0 31 82
- 1.423944 1 5 tcp 1040 ------- 1 1.0 3.0 50 81
d 1.423948 4 5 tcp 1040 ------- 1 1.0 3.0 50 81
d 1.423948 2 5 tcp 1040 ------- 1 1.0 3.0 50 81
d 1.423948 0 5 tcp 1040 ------- 1 1.0 3.0 50 81
r 1.424204 5 3 tcp 1040 ------- 1 1.0 3.0 41 72
h 1.424204 3 5 ack 40 ------- 1 3.0 1.0 41 92
+ 1.42446 3 5 ack 40 ------- 1 3.0 1.0 32 83
- 1.42446 3 5 ack 40 ------- 1 3.0 1.0 32 83
d 1.424464 4 5 ack 40 ------- 1 3.0 1.0 32 83
d 1.424464 2 5 ack 40 ------- 1 3.0 1.0 32 83
d 1.424464 0 5 ack 40 ------- 1 3.0 1.0 32 83
r 1.42862 5 3 tcp 1040 ------- 1 1.0 3.0 42 73
h 1.42862 3 5 ack 40 ------- 1 3.0 1.0 42 93
+ 1.428876 3 5 ack 40 ------- 1 3.0 1.0 33 84
- 1.428876 3 5 ack 40 ------- 1 3.0 1.0 33 84
d 1.42888 4 5 ack 40 ------- 1 3.0 1.0 33 84
d 1.42888 2 5 ack 40 ------- 1 3.0 1.0 33 84
d 1.42888 0 5 ack 40 ------- 1 3.0 1.0 33 84
r 1.433036 5 3 tcp 1040 ------- 1 1.0 3.0 43 74
h 1.433036 3 5 ack 40 ------- 1 3.0 1.0 43 94
+ 1.433292 3 5 ack 40 ------- 1 3.0 1.0 34 85
- 1.433292 3 5 ack 40 ------- 1 3.0 1.0 34 85
d 1.433296 4 5 ack 40 ------- 1 3.0 1.0 34 85
d 1.433296 2 5 ack 40 ------- 1 3.0 1.0 34 85
d 1.433296 0 5 ack 40 ------- 1 3.0 1.0 34 85
r 1.437452 5 3 tcp 1040 ------- 1 1.0 3.0 44 75
h 1.437452 3 5 ack 40 ------- 1 3.0 1.0 44 95
+ 1.437708 3 5 ack 40 ------- 1 3.0 1.0 35 86
- 1.437708 3 5 ack 40 ------- 1 3.0 1.0 35 86
d 1.437712 4 5 ack 40 ------- 1 3.0 1.0 35 86
d 1.437712 2 5 ack 40 ------- 1 3.0 1.0 35 86
d 1.437712 0 5 ack 40 ------- 1 3.0 1.0 35 86
r 1.441868 5 3 tcp 1040 ------- 1 1.0 3.0 45 76
h 1.441868 3 5 ack 40 ------- 1 3.0 1.0 45 96
+ 1.442124 3 5 ack 40 ------- 1 3.0 1.0 36 87
- 1.442124 3 5 ack 40 ------- 1 3.0 1.0 36 87
d 1.442128 4 5 ack 40 ------- 1 3.0 1.0 36 87
d 1.442128 2 5 ack 40 ------- 1 3.0 1.0 36 87
d 1.442128 0 5 ack 40 ------- 1 3.0 1.0 36 87
r 1.446284 5 3 tcp 1040 ------- 1 1.0 3.0 46 77
h 1.446284 3 5 ack 40 ------- 1 3.0 1.0 46 97
+ 1.44654 3 5 ack 40 ------- 1 3.0 1.0 37 88
- 1.44654 3 5 ack 40 ------- 1 3.0 1.0 37 88
d 1.446544 4 5 ack 40 ------- 1 3.0 1.0 37 88
d 1.446544 2 5 ack 40 ------- 1 3.0 1.0 37 88
d 1.446544 0 5 ack 40 ------- 1 3.0 1.0 37 88
r 1.4507 5 3 tcp 1040 ------- 1 1.0 3.0 47 78
h 1.4507 3 5 ack 40 ------- 1 3.0 1.0 47 98
+ 1.450956 3 5 ack 40 ------- 1 3.0 1.0 38 89
- 1.450956 3 5 ack 40 ------- 1 3.0 1.0 38 89
d 1.45096 4 5 ack 40 ------- 1 3.0 1.0 38 89
d 1.45096 2 5 ack 40 ------- 1 3.0 1.0 38 89
d 1.45096 0 5 ack 40 ------- 1 3.0 1.0 38 89
r 1.455116 5 3 tcp 1040 ------- 1 1.0 3.0 48 79
h 1.455116 3 5 ack 40 ------- 1 3.0 1.0 48 99
+ 1.455372 3 5 ack 40 ------- 1 3.0 1.0 39 90
- 1.455372 3 5 ack 40 ------- 1 3.0 1.0 39 90
d 1.455376 4 5 ack 40 ------- 1 3.0 1.0 39 90
d 1.455376 2 5 ack 40 ------- 1 3.0 1.0 39 90
d 1.455376 0 5 ack 40 ------- 1 3.0 1.0 39 90
r 1.459532 5 3 tcp 1040 ------- 1 1.0 3.0 49 80
h 1.459532 3 5 ack 40 ------- 1 3.0 1.0 49 100
+ 1.459788 3 5 ack 40 ------- 1 3.0 1.0 40 91
- 1.459788 3 5 ack 40 ------- 1 3.0 1.0 40 91
d 1.459792 4 5 ack 40 ------- 1 3.0 1.0 40 91
d 1.459792 2 5 ack 40 ------- 1 3.0 1.0 40 91
d 1.459792 0 5 ack 40 ------- 1 3.0 1.0 40 91
r 1.460048 5 1 ack 40 ------- 1 3.0 1.0 31 82
h 1.460048 1 5 tcp 1040 ------- 1 1.0 3.0 51 101